LAMMPS data file via write_data, version 7 Aug 2019, timestep = 0

3912 atoms
11 atom types
384 bonds
2 bond types

-1.0316426000000000e-02 6.2149683573999994e+01 xlo xhi
-5.9398249700000005e-01 3.5326017503000003e+01 ylo yhi
-1.3241855739999999e+00 1.7875814425999998e+01 zlo zhi

Masses

1 26.9815
2 24.305
3 28.0855
4 15.9994
5 15.9994
6 15.9994
7 15.9994
8 1.00797
9 15.9994
10 26.9815
11 22.99

Pair Coeffs # lj/cut/coul/long

1 1.3297e-06 4.27132
2 9.03e-07 5.26433
3 1.8402e-06 3.30196
4 0.155416 3.16552
5 0.155416 3.16552
6 0.155416 3.16552
7 0.155416 3.16552
8 0 0
9 0.155416 3.16552
10 1.8402e-06 3.30196
11 0.1301 2.35001

Bond Coeffs # harmonic

1 554.135 1
2 554.135 1

Atoms # full

3 1 1 1.5750000000000000e+00 1.9440539999999999e+00 7.4803400000000000e+00 3.3210000000000002e+00 0 0 0
4 1 1 1.5750000000000000e+00 1.9440539999999999e+00 1.4996600000000000e+00 3.3210000000000002e+00 0 0 0
5 1 3 2.0999935483869998e+00 2.8945840000000000e+00 2.9544199999999998e+00 6.4500000000000002e-01 0 0 0
6 1 3 2.0999935483869998e+00 2.8945840000000000e+00 6.0255799999999997e+00 6.4500000000000002e-01 0 0 0
9 1 3 2.0999935483869998e+00 3.0458400000000002e-01 7.4444200000000000e+00 6.4500000000000002e-01 0 0 0
10 1 3 2.0999935483869998e+00 3.0458400000000002e-01 1.5355799999999999e+00 6.4500000000000002e-01 0 0 0
13 1 4 -1.0500000000000000e+00 2.6594120000000001e+00 4.4900000000000002e+00 1.4849999999999999e-01 0 0 0
16 1 5 -9.4999999999999996e-01 2.5661719999999999e+00 0.0000000000000000e+00 2.2799999999999998e+00 0 0 0
17 1 6 -1.1808000000000001e+00 2.9432760000000000e+00 6.2051800000000004e+00 2.2305000000000001e+00 0 0 0
18 1 4 -1.0500000000000000e+00 2.9639959999999999e+00 2.7748200000000001e+00 2.2305000000000001e+00 0 0 0
25 1 4 -1.0500000000000000e+00 6.9412000000000001e-02 0.0000000000000000e+00 1.4849999999999999e-01 0 0 0
26 1 4 -1.0500000000000000e+00 1.6990400000000001e+00 2.0474399999999999e+00 0.0000000000000000e+00 0 0 0
27 1 4 -1.0500000000000000e+00 1.6990400000000001e+00 6.9325599999999996e+00 0.0000000000000000e+00 0 0 0
29 1 4 -1.0500000000000000e+00 3.5327599999999998e-01 1.7151799999999999e+00 2.2305000000000001e+00 0 0 0
30 1 4 -1.0500000000000000e+00 3.7399600000000000e-01 7.2648200000000003e+00 2.2305000000000001e+00 0 0 0
37 1 8 4.2499999999999999e-01 2.1961723740000001e+00 7.4000010100000002e-01 3.0200001009999999e+00 0 0 0
1959 13 1 1.5750000000000000e+00 1.9440539999999999e+00 7.4803400000000000e+00 1.2920999999999999e+01 0 0 0
1960 13 1 1.5750000000000000e+00 1.9440539999999999e+00 1.4996600000000000e+00 1.2920999999999999e+01 0 0 0
1961 13 3 2.0999935483869998e+00 2.8945840000000000e+00 2.9544199999999998e+00 1.0244999999999999e+01 0 0 0
1962 13 3 2.0999935483869998e+00 2.8945840000000000e+00 6.0255799999999997e+00 1.0244999999999999e+01 0 0 0
1965 13 3 2.0999935483869998e+00 3.0458400000000002e-01 7.4444200000000000e+00 1.0244999999999999e+01 0 0 0
1966 13 3 2.0999935483869998e+00 3.0458400000000002e-01 1.5355799999999999e+00 1.0244999999999999e+01 0 0 0
1969 13 4 -1.0500000000000000e+00 2.6594120000000001e+00 4.4900000000000002e+00 9.7484999999999999e+00 0 0 0
1972 13 5 -9.4999999999999996e-01 2.5661719999999999e+00 0.0000000000000000e+00 1.1879999999999999e+01 0 0 0
1973 13 6 -1.1808000000000001e+00 2.9432760000000000e+00 6.2051800000000004e+00 1.1830500000000001e+01 0 0 0
1974 13 4 -1.0500000000000000e+00 2.9639959999999999e+00 2.7748200000000001e+00 1.1830500000000001e+01 0 0 0
1981 13 4 -1.0500000000000000e+00 6.9412000000000001e-02 0.0000000000000000e+00 9.7484999999999999e+00 0 0 0
1982 13 4 -1.0500000000000000e+00 1.6990400000000001e+00 2.0474399999999999e+00 9.5999999999999996e+00 0 0 0
1983 13 4 -1.0500000000000000e+00 1.6990400000000001e+00 6.9325599999999996e+00 9.5999999999999996e+00 0 0 0
1985 13 4 -1.0500000000000000e+00 3.5327599999999998e-01 1.7151799999999999e+00 1.1830500000000001e+01 0 0 0
1986 13 4 -1.0500000000000000e+00 3.7399600000000000e-01 7.2648200000000003e+00 1.1830500000000001e+01 0 0 0
1993 13 8 4.2499999999999999e-01 2.1961723740000001e+00 7.4000010100000002e-01 1.2620000100999999e+01 0 0 0
492 4 1 1.5750000000000000e+00 1.9440539999999999e+00 1.6460340000000002e+01 3.3210000000000002e+00 0 0 0
493 4 1 1.5750000000000000e+00 1.9440539999999999e+00 1.0479660000000001e+01 3.3210000000000002e+00 0 0 0
494 4 3 2.0999935483869998e+00 2.8945840000000000e+00 1.1934419999999999e+01 6.4500000000000002e-01 0 0 0
495 4 3 2.0999935483869998e+00 2.8945840000000000e+00 1.5005580000000000e+01 6.4500000000000002e-01 0 0 0
498 4 3 2.0999935483869998e+00 3.0458400000000002e-01 1.6424420000000001e+01 6.4500000000000002e-01 0 0 0
499 4 3 2.0999935483869998e+00 3.0458400000000002e-01 1.0515580000000000e+01 6.4500000000000002e-01 0 0 0
502 4 4 -1.0500000000000000e+00 2.6594120000000001e+00 1.3470000000000001e+01 1.4849999999999999e-01 0 0 0
505 4 5 -9.4999999999999996e-01 2.5661719999999999e+00 8.9800000000000004e+00 2.2799999999999998e+00 0 0 0
506 4 6 -1.1808000000000001e+00 2.9432760000000000e+00 1.5185180000000001e+01 2.2305000000000001e+00 0 0 0
507 4 4 -1.0500000000000000e+00 2.9639959999999999e+00 1.1754820000000000e+01 2.2305000000000001e+00 0 0 0
514 4 4 -1.0500000000000000e+00 6.9412000000000001e-02 8.9800000000000004e+00 1.4849999999999999e-01 0 0 0
515 4 4 -1.0500000000000000e+00 1.6990400000000001e+00 1.1027440000000000e+01 0.0000000000000000e+00 0 0 0
516 4 4 -1.0500000000000000e+00 1.6990400000000001e+00 1.5912559999999999e+01 0.0000000000000000e+00 0 0 0
518 4 4 -1.0500000000000000e+00 3.5327599999999998e-01 1.0695180000000001e+01 2.2305000000000001e+00 0 0 0
519 4 4 -1.0500000000000000e+00 3.7399600000000000e-01 1.6244820000000001e+01 2.2305000000000001e+00 0 0 0
526 4 8 4.2499999999999999e-01 2.1961723740000001e+00 9.7200001010000001e+00 3.0200001009999999e+00 0 0 0
2448 16 1 1.5750000000000000e+00 1.9440539999999999e+00 1.6460340000000002e+01 1.2920999999999999e+01 0 0 0
2449 16 1 1.5750000000000000e+00 1.9440539999999999e+00 1.0479660000000001e+01 1.2920999999999999e+01 0 0 0
2450 16 3 2.0999935483869998e+00 2.8945840000000000e+00 1.1934419999999999e+01 1.0244999999999999e+01 0 0 0
2451 16 3 2.0999935483869998e+00 2.8945840000000000e+00 1.5005580000000000e+01 1.0244999999999999e+01 0 0 0
2454 16 3 2.0999935483869998e+00 3.0458400000000002e-01 1.6424420000000001e+01 1.0244999999999999e+01 0 0 0
2455 16 3 2.0999935483869998e+00 3.0458400000000002e-01 1.0515580000000000e+01 1.0244999999999999e+01 0 0 0
2458 16 4 -1.0500000000000000e+00 2.6594120000000001e+00 1.3470000000000001e+01 9.7484999999999999e+00 0 0 0
2461 16 5 -9.4999999999999996e-01 2.5661719999999999e+00 8.9800000000000004e+00 1.1879999999999999e+01 0 0 0
2462 16 6 -1.1808000000000001e+00 2.9432760000000000e+00 1.5185180000000001e+01 1.1830500000000001e+01 0 0 0
2463 16 4 -1.0500000000000000e+00 2.9639959999999999e+00 1.1754820000000000e+01 1.1830500000000001e+01 0 0 0
2470 16 4 -1.0500000000000000e+00 6.9412000000000001e-02 8.9800000000000004e+00 9.7484999999999999e+00 0 0 0
2471 16 4 -1.0500000000000000e+00 1.6990400000000001e+00 1.1027440000000000e+01 9.5999999999999996e+00 0 0 0
2472 16 4 -1.0500000000000000e+00 1.6990400000000001e+00 1.5912559999999999e+01 9.5999999999999996e+00 0 0 0
2474 16 4 -1.0500000000000000e+00 3.5327599999999998e-01 1.0695180000000001e+01 1.1830500000000001e+01 0 0 0
2475 16 4 -1.0500000000000000e+00 3.7399600000000000e-01 1.6244820000000001e+01 1.1830500000000001e+01 0 0 0
2482 16 8 4.2499999999999999e-01 2.1961723740000001e+00 9.7200001010000001e+00 1.2620000100999999e+01 0 0 0
7 1 3 2.0999935483869998e+00 3.5840420000000002e+00 7.4444200000000000e+00 5.9984999999999999e+00 0 0 0
8 1 3 2.0999935483869998e+00 3.5840420000000002e+00 1.5355799999999999e+00 5.9984999999999999e+00 0 0 0
11 1 3 2.0999935483869998e+00 9.9404199999999998e-01 2.9544199999999998e+00 5.9984999999999999e+00 0 0 0
12 1 3 2.0999935483869998e+00 9.9404199999999998e-01 6.0255799999999997e+00 5.9984999999999999e+00 0 0 0
19 1 4 -1.0500000000000000e+00 3.8192140000000001e+00 0.0000000000000000e+00 6.4935000000000000e+00 0 0 0
20 1 4 -1.0500000000000000e+00 2.1895859999999998e+00 2.0474399999999999e+00 6.6420000000000003e+00 0 0 0
21 1 4 -1.0500000000000000e+00 2.1895859999999998e+00 6.9325599999999996e+00 6.6420000000000003e+00 0 0 0
22 1 7 -1.0808000000000000e+00 3.9124539999999999e+00 4.4900000000000002e+00 4.3620000000000001e+00 0 0 0
23 1 4 -1.0500000000000000e+00 3.5348320000000002e+00 1.7151799999999999e+00 4.4115000000000002e+00 0 0 0
24 1 6 -1.1808000000000001e+00 3.5141119999999999e+00 7.2648200000000003e+00 4.4115000000000002e+00 0 0 0
31 1 4 -1.0500000000000000e+00 1.2292140000000000e+00 4.4900000000000002e+00 6.4935000000000000e+00 0 0 0
34 1 5 -9.4999999999999996e-01 1.3224540000000000e+00 0.0000000000000000e+00 4.3620000000000001e+00 0 0 0
35 1 4 -1.0500000000000000e+00 9.4483200000000001e-01 6.2051800000000004e+00 4.4115000000000002e+00 0 0 0
36 1 4 -1.0500000000000000e+00 9.2411200000000004e-01 2.7748200000000001e+00 4.4115000000000002e+00 0 0 0
38 1 8 4.2499999999999999e-01 3.5424543740000001e+00 5.2300001009999999e+00 5.1020001009999998e+00 0 0 0
40 1 8 4.2499999999999999e-01 9.5245437399999999e-01 7.4000010100000002e-01 5.1020001009999998e+00 0 0 0
1963 13 3 2.0999935483869998e+00 3.5840420000000002e+00 7.4444200000000000e+00 1.5598500000000000e+01 0 0 0
1964 13 3 2.0999935483869998e+00 3.5840420000000002e+00 1.5355799999999999e+00 1.5598500000000000e+01 0 0 0
1967 13 3 2.0999935483869998e+00 9.9404199999999998e-01 2.9544199999999998e+00 1.5598500000000000e+01 0 0 0
1968 13 3 2.0999935483869998e+00 9.9404199999999998e-01 6.0255799999999997e+00 1.5598500000000000e+01 0 0 0
1975 13 4 -1.0500000000000000e+00 3.8192140000000001e+00 0.0000000000000000e+00 1.6093499999999999e+01 0 0 0
1976 13 4 -1.0500000000000000e+00 2.1895859999999998e+00 2.0474399999999999e+00 1.6242000000000001e+01 0 0 0
1977 13 4 -1.0500000000000000e+00 2.1895859999999998e+00 6.9325599999999996e+00 1.6242000000000001e+01 0 0 0
1978 13 7 -1.0808000000000000e+00 3.9124539999999999e+00 4.4900000000000002e+00 1.3962000000000000e+01 0 0 0
1979 13 4 -1.0500000000000000e+00 3.5348320000000002e+00 1.7151799999999999e+00 1.4011500000000000e+01 0 0 0
1980 13 6 -1.1808000000000001e+00 3.5141119999999999e+00 7.2648200000000003e+00 1.4011500000000000e+01 0 0 0
1987 13 4 -1.0500000000000000e+00 1.2292140000000000e+00 4.4900000000000002e+00 1.6093499999999999e+01 0 0 0
1990 13 5 -9.4999999999999996e-01 1.3224540000000000e+00 0.0000000000000000e+00 1.3962000000000000e+01 0 0 0
1991 13 4 -1.0500000000000000e+00 9.4483200000000001e-01 6.2051800000000004e+00 1.4011500000000000e+01 0 0 0
1992 13 4 -1.0500000000000000e+00 9.2411200000000004e-01 2.7748200000000001e+00 1.4011500000000000e+01 0 0 0
1994 13 8 4.2499999999999999e-01 3.5424543740000001e+00 5.2300001009999999e+00 1.4702000100999999e+01 0 0 0
1996 13 8 4.2499999999999999e-01 9.5245437399999999e-01 7.4000010100000002e-01 1.4702000100999999e+01 0 0 0
496 4 3 2.0999935483869998e+00 3.5840420000000002e+00 1.6424420000000001e+01 5.9984999999999999e+00 0 0 0
497 4 3 2.0999935483869998e+00 3.5840420000000002e+00 1.0515580000000000e+01 5.9984999999999999e+00 0 0 0
500 4 3 2.0999935483869998e+00 9.9404199999999998e-01 1.1934419999999999e+01 5.9984999999999999e+00 0 0 0
501 4 3 2.0999935483869998e+00 9.9404199999999998e-01 1.5005580000000000e+01 5.9984999999999999e+00 0 0 0
508 4 4 -1.0500000000000000e+00 3.8192140000000001e+00 8.9800000000000004e+00 6.4935000000000000e+00 0 0 0
509 4 4 -1.0500000000000000e+00 2.1895859999999998e+00 1.1027440000000000e+01 6.6420000000000003e+00 0 0 0
510 4 4 -1.0500000000000000e+00 2.1895859999999998e+00 1.5912559999999999e+01 6.6420000000000003e+00 0 0 0
511 4 7 -1.0808000000000000e+00 3.9124539999999999e+00 1.3470000000000001e+01 4.3620000000000001e+00 0 0 0
512 4 4 -1.0500000000000000e+00 3.5348320000000002e+00 1.0695180000000001e+01 4.4115000000000002e+00 0 0 0
513 4 6 -1.1808000000000001e+00 3.5141119999999999e+00 1.6244820000000001e+01 4.4115000000000002e+00 0 0 0
520 4 4 -1.0500000000000000e+00 1.2292140000000000e+00 1.3470000000000001e+01 6.4935000000000000e+00 0 0 0
523 4 5 -9.4999999999999996e-01 1.3224540000000000e+00 8.9800000000000004e+00 4.3620000000000001e+00 0 0 0
524 4 4 -1.0500000000000000e+00 9.4483200000000001e-01 1.5185180000000001e+01 4.4115000000000002e+00 0 0 0
525 4 4 -1.0500000000000000e+00 9.2411200000000004e-01 1.1754820000000000e+01 4.4115000000000002e+00 0 0 0
527 4 8 4.2499999999999999e-01 3.5424543740000001e+00 1.4210000101000000e+01 5.1020001009999998e+00 0 0 0
529 4 8 4.2499999999999999e-01 9.5245437399999999e-01 9.7200001010000001e+00 5.1020001009999998e+00 0 0 0
2452 16 3 2.0999935483869998e+00 3.5840420000000002e+00 1.6424420000000001e+01 1.5598500000000000e+01 0 0 0
2453 16 3 2.0999935483869998e+00 3.5840420000000002e+00 1.0515580000000000e+01 1.5598500000000000e+01 0 0 0
2456 16 3 2.0999935483869998e+00 9.9404199999999998e-01 1.1934419999999999e+01 1.5598500000000000e+01 0 0 0
2457 16 3 2.0999935483869998e+00 9.9404199999999998e-01 1.5005580000000000e+01 1.5598500000000000e+01 0 0 0
2464 16 4 -1.0500000000000000e+00 3.8192140000000001e+00 8.9800000000000004e+00 1.6093499999999999e+01 0 0 0
2465 16 4 -1.0500000000000000e+00 2.1895859999999998e+00 1.1027440000000000e+01 1.6242000000000001e+01 0 0 0
2466 16 4 -1.0500000000000000e+00 2.1895859999999998e+00 1.5912559999999999e+01 1.6242000000000001e+01 0 0 0
2467 16 7 -1.0808000000000000e+00 3.9124539999999999e+00 1.3470000000000001e+01 1.3962000000000000e+01 0 0 0
2468 16 4 -1.0500000000000000e+00 3.5348320000000002e+00 1.0695180000000001e+01 1.4011500000000000e+01 0 0 0
2469 16 6 -1.1808000000000001e+00 3.5141119999999999e+00 1.6244820000000001e+01 1.4011500000000000e+01 0 0 0
2476 16 4 -1.0500000000000000e+00 1.2292140000000000e+00 1.3470000000000001e+01 1.6093499999999999e+01 0 0 0
2479 16 5 -9.4999999999999996e-01 1.3224540000000000e+00 8.9800000000000004e+00 1.3962000000000000e+01 0 0 0
2480 16 4 -1.0500000000000000e+00 9.4483200000000001e-01 1.5185180000000001e+01 1.4011500000000000e+01 0 0 0
2481 16 4 -1.0500000000000000e+00 9.2411200000000004e-01 1.1754820000000000e+01 1.4011500000000000e+01 0 0 0
2483 16 8 4.2499999999999999e-01 3.5424543740000001e+00 1.4210000101000000e+01 1.4702000100999999e+01 0 0 0
2485 16 8 4.2499999999999999e-01 9.5245437399999999e-01 9.7200001010000001e+00 1.4702000100999999e+01 0 0 0
1 1 1 1.5750000000000000e+00 4.5340540000000003e+00 2.9903400000000002e+00 3.3210000000000002e+00 0 0 0
2 1 2 1.3600000000000001e+00 4.5340540000000003e+00 5.9896599999999998e+00 3.3210000000000002e+00 0 0 0
14 1 4 -1.0500000000000000e+00 4.2890400000000000e+00 6.5374400000000001e+00 0.0000000000000000e+00 0 0 0
15 1 4 -1.0500000000000000e+00 4.2890400000000000e+00 2.4425599999999998e+00 0.0000000000000000e+00 0 0 0
28 1 7 -1.0808000000000000e+00 5.1561719999999998e+00 4.4900000000000002e+00 2.2799999999999998e+00 0 0 0
39 1 8 4.2499999999999999e-01 4.7861723740000004e+00 5.2300001009999999e+00 3.0200001009999999e+00 0 0 0
43 1 1 1.5750000000000000e+00 7.1240540000000001e+00 7.4803400000000000e+00 3.3210000000000002e+00 0 0 0
44 1 1 1.5750000000000000e+00 7.1240540000000001e+00 1.4996600000000000e+00 3.3210000000000002e+00 0 0 0
45 1 3 2.0999935483869998e+00 8.0745839999999998e+00 2.9544199999999998e+00 6.4500000000000002e-01 0 0 0
46 1 3 2.0999935483869998e+00 8.0745839999999998e+00 6.0255799999999997e+00 6.4500000000000002e-01 0 0 0
49 1 3 2.0999935483869998e+00 5.4845839999999999e+00 7.4444200000000000e+00 6.4500000000000002e-01 0 0 0
50 1 3 2.0999935483869998e+00 5.4845839999999999e+00 1.5355799999999999e+00 6.4500000000000002e-01 0 0 0
53 1 4 -1.0500000000000000e+00 7.8394120000000003e+00 4.4900000000000002e+00 1.4849999999999999e-01 0 0 0
56 1 5 -9.4999999999999996e-01 7.7461719999999996e+00 0.0000000000000000e+00 2.2799999999999998e+00 0 0 0
57 1 4 -1.0500000000000000e+00 8.1232760000000006e+00 6.2051800000000004e+00 2.2305000000000001e+00 0 0 0
58 1 4 -1.0500000000000000e+00 8.1439959999999996e+00 2.7748200000000001e+00 2.2305000000000001e+00 0 0 0
65 1 4 -1.0500000000000000e+00 5.2494120000000004e+00 0.0000000000000000e+00 1.4849999999999999e-01 0 0 0
66 1 4 -1.0500000000000000e+00 6.8790399999999998e+00 2.0474399999999999e+00 0.0000000000000000e+00 0 0 0
67 1 4 -1.0500000000000000e+00 6.8790399999999998e+00 6.9325599999999996e+00 0.0000000000000000e+00 0 0 0
69 1 4 -1.0500000000000000e+00 5.5332759999999999e+00 1.7151799999999999e+00 2.2305000000000001e+00 0 0 0
70 1 6 -1.1808000000000001e+00 5.5539959999999997e+00 7.2648200000000003e+00 2.2305000000000001e+00 0 0 0
77 1 8 4.2499999999999999e-01 7.3761723740000003e+00 7.4000010100000002e-01 3.0200001009999999e+00 0 0 0
1957 13 1 1.5750000000000000e+00 4.5340540000000003e+00 2.9903400000000002e+00 1.2920999999999999e+01 0 0 0
1958 13 2 1.3600000000000001e+00 4.5340540000000003e+00 5.9896599999999998e+00 1.2920999999999999e+01 0 0 0
1970 13 4 -1.0500000000000000e+00 4.2890400000000000e+00 6.5374400000000001e+00 9.5999999999999996e+00 0 0 0
1971 13 4 -1.0500000000000000e+00 4.2890400000000000e+00 2.4425599999999998e+00 9.5999999999999996e+00 0 0 0
1984 13 7 -1.0808000000000000e+00 5.1561719999999998e+00 4.4900000000000002e+00 1.1879999999999999e+01 0 0 0
1995 13 8 4.2499999999999999e-01 4.7861723740000004e+00 5.2300001009999999e+00 1.2620000100999999e+01 0 0 0
1999 13 1 1.5750000000000000e+00 7.1240540000000001e+00 7.4803400000000000e+00 1.2920999999999999e+01 0 0 0
2000 13 1 1.5750000000000000e+00 7.1240540000000001e+00 1.4996600000000000e+00 1.2920999999999999e+01 0 0 0
2001 13 3 2.0999935483869998e+00 8.0745839999999998e+00 2.9544199999999998e+00 1.0244999999999999e+01 0 0 0
2002 13 3 2.0999935483869998e+00 8.0745839999999998e+00 6.0255799999999997e+00 1.0244999999999999e+01 0 0 0
2005 13 3 2.0999935483869998e+00 5.4845839999999999e+00 7.4444200000000000e+00 1.0244999999999999e+01 0 0 0
2006 13 3 2.0999935483869998e+00 5.4845839999999999e+00 1.5355799999999999e+00 1.0244999999999999e+01 0 0 0
2009 13 4 -1.0500000000000000e+00 7.8394120000000003e+00 4.4900000000000002e+00 9.7484999999999999e+00 0 0 0
2012 13 5 -9.4999999999999996e-01 7.7461719999999996e+00 0.0000000000000000e+00 1.1879999999999999e+01 0 0 0
2013 13 4 -1.0500000000000000e+00 8.1232760000000006e+00 6.2051800000000004e+00 1.1830500000000001e+01 0 0 0
2014 13 4 -1.0500000000000000e+00 8.1439959999999996e+00 2.7748200000000001e+00 1.1830500000000001e+01 0 0 0
2021 13 4 -1.0500000000000000e+00 5.2494120000000004e+00 0.0000000000000000e+00 9.7484999999999999e+00 0 0 0
2022 13 4 -1.0500000000000000e+00 6.8790399999999998e+00 2.0474399999999999e+00 9.5999999999999996e+00 0 0 0
2023 13 4 -1.0500000000000000e+00 6.8790399999999998e+00 6.9325599999999996e+00 9.5999999999999996e+00 0 0 0
2025 13 4 -1.0500000000000000e+00 5.5332759999999999e+00 1.7151799999999999e+00 1.1830500000000001e+01 0 0 0
2026 13 6 -1.1808000000000001e+00 5.5539959999999997e+00 7.2648200000000003e+00 1.1830500000000001e+01 0 0 0
2033 13 8 4.2499999999999999e-01 7.3761723740000003e+00 7.4000010100000002e-01 1.2620000100999999e+01 0 0 0
490 4 1 1.5750000000000000e+00 4.5340540000000003e+00 1.1970340000000000e+01 3.3210000000000002e+00 0 0 0
491 4 2 1.3600000000000001e+00 4.5340540000000003e+00 1.4969660000000001e+01 3.3210000000000002e+00 0 0 0
503 4 4 -1.0500000000000000e+00 4.2890400000000000e+00 1.5517440000000001e+01 0.0000000000000000e+00 0 0 0
504 4 4 -1.0500000000000000e+00 4.2890400000000000e+00 1.1422560000000001e+01 0.0000000000000000e+00 0 0 0
517 4 7 -1.0808000000000000e+00 5.1561719999999998e+00 1.3470000000000001e+01 2.2799999999999998e+00 0 0 0
528 4 8 4.2499999999999999e-01 4.7861723740000004e+00 1.4210000101000000e+01 3.0200001009999999e+00 0 0 0
532 4 1 1.5750000000000000e+00 7.1240540000000001e+00 1.6460340000000002e+01 3.3210000000000002e+00 0 0 0
533 4 1 1.5750000000000000e+00 7.1240540000000001e+00 1.0479660000000001e+01 3.3210000000000002e+00 0 0 0
534 4 3 2.0999935483869998e+00 8.0745839999999998e+00 1.1934419999999999e+01 6.4500000000000002e-01 0 0 0
535 4 3 2.0999935483869998e+00 8.0745839999999998e+00 1.5005580000000000e+01 6.4500000000000002e-01 0 0 0
538 4 3 2.0999935483869998e+00 5.4845839999999999e+00 1.6424420000000001e+01 6.4500000000000002e-01 0 0 0
539 4 3 2.0999935483869998e+00 5.4845839999999999e+00 1.0515580000000000e+01 6.4500000000000002e-01 0 0 0
542 4 4 -1.0500000000000000e+00 7.8394120000000003e+00 1.3470000000000001e+01 1.4849999999999999e-01 0 0 0
545 4 5 -9.4999999999999996e-01 7.7461719999999996e+00 8.9800000000000004e+00 2.2799999999999998e+00 0 0 0
546 4 4 -1.0500000000000000e+00 8.1232760000000006e+00 1.5185180000000001e+01 2.2305000000000001e+00 0 0 0
547 4 4 -1.0500000000000000e+00 8.1439959999999996e+00 1.1754820000000000e+01 2.2305000000000001e+00 0 0 0
554 4 4 -1.0500000000000000e+00 5.2494120000000004e+00 8.9800000000000004e+00 1.4849999999999999e-01 0 0 0
555 4 4 -1.0500000000000000e+00 6.8790399999999998e+00 1.1027440000000000e+01 0.0000000000000000e+00 0 0 0
556 4 4 -1.0500000000000000e+00 6.8790399999999998e+00 1.5912559999999999e+01 0.0000000000000000e+00 0 0 0
558 4 4 -1.0500000000000000e+00 5.5332759999999999e+00 1.0695180000000001e+01 2.2305000000000001e+00 0 0 0
559 4 6 -1.1808000000000001e+00 5.5539959999999997e+00 1.6244820000000001e+01 2.2305000000000001e+00 0 0 0
566 4 8 4.2499999999999999e-01 7.3761723740000003e+00 9.7200001010000001e+00 3.0200001009999999e+00 0 0 0
2446 16 1 1.5750000000000000e+00 4.5340540000000003e+00 1.1970340000000000e+01 1.2920999999999999e+01 0 0 0
2447 16 2 1.3600000000000001e+00 4.5340540000000003e+00 1.4969660000000001e+01 1.2920999999999999e+01 0 0 0
2459 16 4 -1.0500000000000000e+00 4.2890400000000000e+00 1.5517440000000001e+01 9.5999999999999996e+00 0 0 0
2460 16 4 -1.0500000000000000e+00 4.2890400000000000e+00 1.1422560000000001e+01 9.5999999999999996e+00 0 0 0
2473 16 7 -1.0808000000000000e+00 5.1561719999999998e+00 1.3470000000000001e+01 1.1879999999999999e+01 0 0 0
2484 16 8 4.2499999999999999e-01 4.7861723740000004e+00 1.4210000101000000e+01 1.2620000100999999e+01 0 0 0
2488 16 1 1.5750000000000000e+00 7.1240540000000001e+00 1.6460340000000002e+01 1.2920999999999999e+01 0 0 0
2489 16 1 1.5750000000000000e+00 7.1240540000000001e+00 1.0479660000000001e+01 1.2920999999999999e+01 0 0 0
2490 16 3 2.0999935483869998e+00 8.0745839999999998e+00 1.1934419999999999e+01 1.0244999999999999e+01 0 0 0
2491 16 3 2.0999935483869998e+00 8.0745839999999998e+00 1.5005580000000000e+01 1.0244999999999999e+01 0 0 0
2494 16 3 2.0999935483869998e+00 5.4845839999999999e+00 1.6424420000000001e+01 1.0244999999999999e+01 0 0 0
2495 16 3 2.0999935483869998e+00 5.4845839999999999e+00 1.0515580000000000e+01 1.0244999999999999e+01 0 0 0
2498 16 4 -1.0500000000000000e+00 7.8394120000000003e+00 1.3470000000000001e+01 9.7484999999999999e+00 0 0 0
2501 16 5 -9.4999999999999996e-01 7.7461719999999996e+00 8.9800000000000004e+00 1.1879999999999999e+01 0 0 0
2502 16 4 -1.0500000000000000e+00 8.1232760000000006e+00 1.5185180000000001e+01 1.1830500000000001e+01 0 0 0
2503 16 4 -1.0500000000000000e+00 8.1439959999999996e+00 1.1754820000000000e+01 1.1830500000000001e+01 0 0 0
2510 16 4 -1.0500000000000000e+00 5.2494120000000004e+00 8.9800000000000004e+00 9.7484999999999999e+00 0 0 0
2511 16 4 -1.0500000000000000e+00 6.8790399999999998e+00 1.1027440000000000e+01 9.5999999999999996e+00 0 0 0
2512 16 4 -1.0500000000000000e+00 6.8790399999999998e+00 1.5912559999999999e+01 9.5999999999999996e+00 0 0 0
2514 16 4 -1.0500000000000000e+00 5.5332759999999999e+00 1.0695180000000001e+01 1.1830500000000001e+01 0 0 0
2515 16 6 -1.1808000000000001e+00 5.5539959999999997e+00 1.6244820000000001e+01 1.1830500000000001e+01 0 0 0
2522 16 8 4.2499999999999999e-01 7.3761723740000003e+00 9.7200001010000001e+00 1.2620000100999999e+01 0 0 0
32 1 4 -1.0500000000000000e+00 4.7795860000000001e+00 6.5374400000000001e+00 6.6420000000000003e+00 0 0 0
33 1 4 -1.0500000000000000e+00 4.7795860000000001e+00 2.4425599999999998e+00 6.6420000000000003e+00 0 0 0
51 1 3 2.0999935483869998e+00 6.1740420000000000e+00 2.9544199999999998e+00 5.9984999999999999e+00 0 0 0
52 1 3 2.0999935483869998e+00 6.1740420000000000e+00 6.0255799999999997e+00 5.9984999999999999e+00 0 0 0
60 1 4 -1.0500000000000000e+00 7.3695860000000000e+00 2.0474399999999999e+00 6.6420000000000003e+00 0 0 0
61 1 4 -1.0500000000000000e+00 7.3695860000000000e+00 6.9325599999999996e+00 6.6420000000000003e+00 0 0 0
71 1 4 -1.0500000000000000e+00 6.4092140000000004e+00 4.4900000000000002e+00 6.4935000000000000e+00 0 0 0
74 1 5 -9.4999999999999996e-01 6.5024540000000002e+00 0.0000000000000000e+00 4.3620000000000001e+00 0 0 0
75 1 6 -1.1808000000000001e+00 6.1248319999999996e+00 6.2051800000000004e+00 4.4115000000000002e+00 0 0 0
76 1 4 -1.0500000000000000e+00 6.1041119999999998e+00 2.7748200000000001e+00 4.4115000000000002e+00 0 0 0
80 1 8 4.2499999999999999e-01 6.1324543739999999e+00 7.4000010100000002e-01 5.1020001009999998e+00 0 0 0
163 1 11 1.0000000000000000e+00 6.6653484289999998e+00 4.0214331879999996e+00 7.5956304850000000e+00 0 0 0
1988 13 4 -1.0500000000000000e+00 4.7795860000000001e+00 6.5374400000000001e+00 1.6242000000000001e+01 0 0 0
1989 13 4 -1.0500000000000000e+00 4.7795860000000001e+00 2.4425599999999998e+00 1.6242000000000001e+01 0 0 0
2007 13 3 2.0999935483869998e+00 6.1740420000000000e+00 2.9544199999999998e+00 1.5598500000000000e+01 0 0 0
2008 13 3 2.0999935483869998e+00 6.1740420000000000e+00 6.0255799999999997e+00 1.5598500000000000e+01 0 0 0
2016 13 4 -1.0500000000000000e+00 7.3695860000000000e+00 2.0474399999999999e+00 1.6242000000000001e+01 0 0 0
2017 13 4 -1.0500000000000000e+00 7.3695860000000000e+00 6.9325599999999996e+00 1.6242000000000001e+01 0 0 0
2027 13 4 -1.0500000000000000e+00 6.4092140000000004e+00 4.4900000000000002e+00 1.6093499999999999e+01 0 0 0
2030 13 5 -9.4999999999999996e-01 6.5024540000000002e+00 0.0000000000000000e+00 1.3962000000000000e+01 0 0 0
2031 13 6 -1.1808000000000001e+00 6.1248319999999996e+00 6.2051800000000004e+00 1.4011500000000000e+01 0 0 0
2032 13 4 -1.0500000000000000e+00 6.1041119999999998e+00 2.7748200000000001e+00 1.4011500000000000e+01 0 0 0
2036 13 8 4.2499999999999999e-01 6.1324543739999999e+00 7.4000010100000002e-01 1.4702000100999999e+01 0 0 0
2119 13 11 1.0000000000000000e+00 6.6653484289999998e+00 4.0214331879999996e+00 1.7195630484999999e+01 0 0 0
521 4 4 -1.0500000000000000e+00 4.7795860000000001e+00 1.5517440000000001e+01 6.6420000000000003e+00 0 0 0
522 4 4 -1.0500000000000000e+00 4.7795860000000001e+00 1.1422560000000001e+01 6.6420000000000003e+00 0 0 0
540 4 3 2.0999935483869998e+00 6.1740420000000000e+00 1.1934419999999999e+01 5.9984999999999999e+00 0 0 0
541 4 3 2.0999935483869998e+00 6.1740420000000000e+00 1.5005580000000000e+01 5.9984999999999999e+00 0 0 0
549 4 4 -1.0500000000000000e+00 7.3695860000000000e+00 1.1027440000000000e+01 6.6420000000000003e+00 0 0 0
550 4 4 -1.0500000000000000e+00 7.3695860000000000e+00 1.5912559999999999e+01 6.6420000000000003e+00 0 0 0
560 4 4 -1.0500000000000000e+00 6.4092140000000004e+00 1.3470000000000001e+01 6.4935000000000000e+00 0 0 0
563 4 5 -9.4999999999999996e-01 6.5024540000000002e+00 8.9800000000000004e+00 4.3620000000000001e+00 0 0 0
564 4 6 -1.1808000000000001e+00 6.1248319999999996e+00 1.5185180000000001e+01 4.4115000000000002e+00 0 0 0
565 4 4 -1.0500000000000000e+00 6.1041119999999998e+00 1.1754820000000000e+01 4.4115000000000002e+00 0 0 0
569 4 8 4.2499999999999999e-01 6.1324543739999999e+00 9.7200001010000001e+00 5.1020001009999998e+00 0 0 0
652 4 11 1.0000000000000000e+00 6.6653484289999998e+00 1.3001433188000000e+01 7.5956304850000000e+00 0 0 0
2477 16 4 -1.0500000000000000e+00 4.7795860000000001e+00 1.5517440000000001e+01 1.6242000000000001e+01 0 0 0
2478 16 4 -1.0500000000000000e+00 4.7795860000000001e+00 1.1422560000000001e+01 1.6242000000000001e+01 0 0 0
2496 16 3 2.0999935483869998e+00 6.1740420000000000e+00 1.1934419999999999e+01 1.5598500000000000e+01 0 0 0
2497 16 3 2.0999935483869998e+00 6.1740420000000000e+00 1.5005580000000000e+01 1.5598500000000000e+01 0 0 0
2505 16 4 -1.0500000000000000e+00 7.3695860000000000e+00 1.1027440000000000e+01 1.6242000000000001e+01 0 0 0
2506 16 4 -1.0500000000000000e+00 7.3695860000000000e+00 1.5912559999999999e+01 1.6242000000000001e+01 0 0 0
2516 16 4 -1.0500000000000000e+00 6.4092140000000004e+00 1.3470000000000001e+01 1.6093499999999999e+01 0 0 0
2519 16 5 -9.4999999999999996e-01 6.5024540000000002e+00 8.9800000000000004e+00 1.3962000000000000e+01 0 0 0
2520 16 6 -1.1808000000000001e+00 6.1248319999999996e+00 1.5185180000000001e+01 1.4011500000000000e+01 0 0 0
2521 16 4 -1.0500000000000000e+00 6.1041119999999998e+00 1.1754820000000000e+01 1.4011500000000000e+01 0 0 0
2525 16 8 4.2499999999999999e-01 6.1324543739999999e+00 9.7200001010000001e+00 1.4702000100999999e+01 0 0 0
2608 16 11 1.0000000000000000e+00 6.6653484289999998e+00 1.3001433188000000e+01 1.7195630484999999e+01 0 0 0
41 1 1 1.5750000000000000e+00 9.7140540000000009e+00 2.9903400000000002e+00 3.3210000000000002e+00 0 0 0
42 1 1 1.5750000000000000e+00 9.7140540000000009e+00 5.9896599999999998e+00 3.3210000000000002e+00 0 0 0
54 1 4 -1.0500000000000000e+00 9.4690399999999997e+00 6.5374400000000001e+00 0.0000000000000000e+00 0 0 0
55 1 4 -1.0500000000000000e+00 9.4690399999999997e+00 2.4425599999999998e+00 0.0000000000000000e+00 0 0 0
68 1 5 -9.4999999999999996e-01 1.0336171999999999e+01 4.4900000000000002e+00 2.2799999999999998e+00 0 0 0
79 1 8 4.2499999999999999e-01 9.9661723739999992e+00 5.2300001009999999e+00 3.0200001009999999e+00 0 0 0
83 1 1 1.5750000000000000e+00 1.2304054000000001e+01 7.4803400000000000e+00 3.3210000000000002e+00 0 0 0
84 1 1 1.5750000000000000e+00 1.2304054000000001e+01 1.4996600000000000e+00 3.3210000000000002e+00 0 0 0
89 1 3 2.0999935483869998e+00 1.0664584000000000e+01 7.4444200000000000e+00 6.4500000000000002e-01 0 0 0