#模拟过程具体的in文件如下：
units 			real
boundary 		p p p #f：非周期性和固定
atom_style 		full

pair_style 		lj/cut/coul/long 10 8.5
pair_modify 	mix arithmetic #CLAYFF力场中的参数组合形式
pair_modify 	shift yes
bond_style 		harmonic
angle_style 	harmonic
kspace_style 	pppm 1.0e-4

read_data  		411Na-mmt.data #MS导出的data文件
  orthogonal box = (-0.0103164 -0.593982 -1.32419) to (20.7097 8.38602 8.27581)
  5 by 1 by 2 MPI processor grid
  reading atoms ...
  163 atoms
  scanning bonds ...
  1 = max bonds/atom
  reading bonds ...
  16 bonds
  1 = max # of 1-2 neighbors
  0 = max # of 1-3 neighbors
  0 = max # of 1-4 neighbors
  1 = max # of special neighbors
  special bonds CPU = 0.00125146 secs
  read_data CPU = 0.0080421 secs

set 			type 1 charge 1.5750     #Al  ao
  14 settings made for charge
set 			type 2 charge 1.36       #Mg mgo
  2 settings made for charge
set 			type 3 charge 2.099993548387 #09616129 #Si st 由2.1改为该数值，为了实现电荷平衡
  31 settings made for charge
set 			type 4 charge -1.05  	 #ob
  68 settings made for charge
set 			type 5 charge -0.95		 #oh
  12 settings made for charge
set 			type 6 charge -1.1808    #obos
  8 settings made for charge
set 			type 7 charge -1.0808    #ohs
  4 settings made for charge
set 			type 8 charge 0.425      #ho
  16 settings made for charge
set 			type 9 charge -1.1688    #obts
  4 settings made for charge
set 			type 10 charge 1.575     #at
  1 settings made for charge
set 			type 11 charge 1         #Na  如果是其他+2阳离子，这里改为2.0
  3 settings made for charge

neighbor 		1.0 bin
neigh_modify 	delay 0 every 1 check yes

replicate 		1 2 1 #复制扩胞为n*n*n，因为mmt411，x方向已经扩胞4倍了
  orthogonal box = (-0.0103164 -0.593982 -1.32419) to (20.7097 17.366 8.27581)
  5 by 2 by 1 MPI processor grid
  326 atoms
  32 bonds
  1 = max # of 1-2 neighbors
  0 = max # of 1-3 neighbors
  0 = max # of 1-4 neighbors
  1 = max # of special neighbors
  special bonds CPU = 0.000239849 secs
  replicate CPU = 0.000811815 secs

write_data 		${filename1}.data
write_data 		supercell-421-mmt.data
PPPM initialization ...
  using 12-bit tables for long-range coulomb (../kspace.cpp:323)
  G vector (1/distance) = 0.347812
  grid = 18 15 10
  stencil order = 5
  estimated absolute RMS force accuracy = 0.0277599
  estimated relative force accuracy = 8.35981e-05
  using double precision FFTW3
  3d grid and FFT values/proc = 2210 320
Neighbor list info ...
  update every 1 steps, delay 0 steps, check yes
  max neighbors/atom: 2000, page size: 100000
  master list distance cutoff = 11
  ghost atom cutoff = 11
  binsize = 5.5, bins = 4 4 2
  1 neighbor lists, perpetual/occasional/extra = 1 0 0
  (1) pair lj/cut/coul/long, perpetual
      attributes: half, newton on
      pair build: half/bin/newton
      stencil: half/bin/3d/newton
      bin: standard
#write_restart 	${filename1}.restart
Total wall time: 0:00:00
