LAMMPS (7 Aug 2019)
Reading data file ...
  orthogonal box = (0 0 0) to (3.1 3.1 3.1)
  1 by 2 by 5 MPI processor grid
  reading atoms ...
  3 atoms
  scanning bonds ...
  2 = max bonds/atom
  scanning angles ...
  1 = max angles/atom
  reading bonds ...
  2 bonds
  reading angles ...
  1 angles
Finding 1-2 1-3 1-4 neighbors ...
  special bond factors lj:   0          0          0         
  special bond factors coul: 0          0          0         
  2 = max # of 1-2 neighbors
  1 = max # of 1-3 neighbors
  1 = max # of 1-4 neighbors
  2 = max # of special neighbors
  special bonds CPU = 0.000880718 secs
  read_data CPU = 0.00896215 secs
Replicating atoms ...
  orthogonal box = (0 0 0) to (74.4 71.3 37.2)
  5 by 2 by 1 MPI processor grid
  19872 atoms
  13248 bonds
  6624 angles
Finding 1-2 1-3 1-4 neighbors ...
  special bond factors lj:   0          0          0         
  special bond factors coul: 0          0          0         
  2 = max # of 1-2 neighbors
  1 = max # of 1-3 neighbors
  1 = max # of 1-4 neighbors
  2 = max # of special neighbors
  special bonds CPU = 0.002316 secs
  replicate CPU = 0.00461674 secs
Setting atom values ...
  6624 settings made for charge
Setting atom values ...
  13248 settings made for charge
System init for write_data ...
PPPM initialization ...
  using 12-bit tables for long-range coulomb (../kspace.cpp:323)
  G vector (1/distance) = 0.330397
  grid = 45 45 27
  stencil order = 5
  estimated absolute RMS force accuracy = 0.0349876
  estimated relative force accuracy = 0.000105364
  using double precision FFTW3
  3d grid and FFT values/proc = 12544 6075
Neighbor list info ...
  update every 1 steps, delay 0 steps, check yes
  max neighbors/atom: 2000, page size: 100000
  master list distance cutoff = 11
  ghost atom cutoff = 11
  binsize = 5.5, bins = 14 13 7
  1 neighbor lists, perpetual/occasional/extra = 1 0 0
  (1) pair lj/cut/coul/long, perpetual
      attributes: half, newton on
      pair build: half/bin/newton
      stencil: half/bin/3d/newton
      bin: standard
Total wall time: 0:00:00
