LAMMPS data file. msi2lmp v3.9.9 / 05 Nov 2018 / CGCMM for model

   3240 atoms
   2160 bonds
   1080 angles
      0 dihedrals
      0 impropers

   2 atom types
   1 bond types
   1 angle types

    -1.128713803    39.505186197 xlo xhi
     0.000000000    23.460000000 ylo yhi
     0.184000000    36.984000000 zlo zhi

Masses

   1   1.007970 # h*
   2  15.999400 # o*

Pair Coeffs # lj/cut/coul/long

   1   0.0000000000   0.0000000000 # h*
   2   0.1554164124   3.1655200879 # o*

Bond Coeffs # harmonic

   1   554.1349     1.0000 # h*-o*

Angle Coeffs # harmonic

   1    45.7530   109.4700 # h*-o*-h*

Atoms # full

      1      1   1  0.000000     5.228230004     5.622580000     7.176000000   0   0   0 # h*
      2      1   1  0.000000    12.000548661     1.712580000     7.176000000   0   0   0 # h*
      3      1   1  0.000000    -0.711093459     5.626490000     7.176000000   0   0   0 # h*
      4      1   1  0.000000     6.061225199     1.716490000     7.176000000   0   0   0 # h*
      5      1   1  0.000000     2.255182113     0.480930000     7.176000000   0   0   0 # h*
      6      1   1  0.000000     9.027500771     4.390930000     7.176000000   0   0   0 # h*
      7      1   1  0.000000     1.544088654     6.107420000     3.496000000   0   0   0 # h*
      8      1   1  0.000000     8.316407312     2.197420000     3.496000000   0   0   0 # h*
      9      1   1  0.000000     0.711093459     2.193510000     3.496000000   0   0   0 # h*
     10      1   1  0.000000     7.483412117     6.103510000     3.496000000   0   0   0 # h*
     11      1   1  0.000000     4.517136545     3.429070000     3.496000000   0   0   0 # h*
     12      1   1  0.000000    11.289455202     7.339070000     3.496000000   0   0   0 # h*
     13      1   1  0.000000    -0.711093459     2.193510000     3.496000000   0   0   0 # h*
     14      1   1  0.000000     6.061225199     6.103510000     3.496000000   0   0   0 # h*
     15      1   1  0.000000     2.255182113     7.339070000     3.496000000   0   0   0 # h*
     16      1   1  0.000000     9.027500771     3.429070000     3.496000000   0   0   0 # h*
     17      1   1  0.000000     5.228230004     2.197420000     3.496000000   0   0   0 # h*
     18      1   1  0.000000    12.000548661     6.107420000     3.496000000   0   0   0 # h*
     19      1   1  0.000000     0.711093459     5.626490000     7.176000000   0   0   0 # h*
     20      1   1  0.000000     7.483412117     1.716490000     7.176000000   0   0   0 # h*
     21      1   1  0.000000     4.517136545     4.390930000     7.176000000   0   0   0 # h*
     22      1   1  0.000000    11.289455202     0.480930000     7.176000000   0   0   0 # h*
     23      1   1  0.000000     1.544088654     1.712580000     7.176000000   0   0   0 # h*
     24      1   1  0.000000     8.316407312     5.622580000     7.176000000   0   0   0 # h*
     25      1   2  0.000000     2.257416978     6.516679700     0.460000000   0   0   0 # o*
     26      1   2  0.000000     9.029735636     2.606679700     0.460000000   0   0   0 # o*
     27      1   2  0.000000     4.514901679     5.213320300     6.900000000   0   0   0 # o*
     28      1   2  0.000000    11.287220337     1.303320300     6.900000000   0   0   0 # o*
     29      1   1  0.000000     2.257416978     6.516679700     1.280640000   0   0   0 # h*
     30      1   1  0.000000     9.029735636     2.606679700     1.280640000   0   0   0 # h*
     31      1   1  0.000000     2.966275572     6.107420000     0.191360000   0   0   0 # h*
     32      1   1  0.000000     9.738594230     2.197420000     0.191360000   0   0   0 # h*
     33      1   2  0.000000     0.000000000     2.606640600     0.460000000   0   0   0 # o*
     34      1   2  0.000000     6.772318658     6.516640600     0.460000000   0   0   0 # o*
     35      1   2  0.000000     0.000000000     5.213359400     6.900000000   0   0   0 # o*
     36      1   2  0.000000     6.772318658     1.303359400     6.900000000   0   0   0 # o*
     37      1   1  0.000000     0.000000000     2.606640600     1.280640000   0   0   0 # h*
     38      1   1  0.000000     6.772318658     6.516640600     1.280640000   0   0   0 # h*
     39      1   1  0.000000     0.000000000     3.425160000     0.191360000   0   0   0 # h*
     40      1   1  0.000000     6.772318658     7.335160000     0.191360000   0   0   0 # h*
     41      1   2  0.000000     4.514901679     2.606679700     0.460000000   0   0   0 # o*
     42      1   2  0.000000    11.287220337     6.516679700     0.460000000   0   0   0 # o*
     43      1   2  0.000000     2.257416978     1.303320300     6.900000000   0   0   0 # o*
     44      1   2  0.000000     9.029735636     5.213320300     6.900000000   0   0   0 # o*
     45      1   1  0.000000     4.514901679     2.606679700     1.280640000   0   0   0 # h*
     46      1   1  0.000000    11.287220337     6.516679700     1.280640000   0   0   0 # h*
     47      1   1  0.000000     3.806043086     2.197420000     0.191360000   0   0   0 # h*
     48      1   1  0.000000    10.578361743     6.107420000     0.191360000   0   0   0 # h*
     49      1   2  0.000000     4.514901679     5.213320300     4.140000000   0   0   0 # o*
     50      1   2  0.000000    11.287220337     1.303320300     4.140000000   0   0   0 # o*
     51      1   2  0.000000     2.257416978     6.516679700     3.220000000   0   0   0 # o*
     52      1   2  0.000000     9.029735636     2.606679700     3.220000000   0   0   0 # o*
     53      1   1  0.000000     4.514901679     5.213320300     4.960640000   0   0   0 # h*
     54      1   1  0.000000    11.287220337     1.303320300     4.960640000   0   0   0 # h*
     55      1   1  0.000000     3.806043086     5.622580000     3.871360000   0   0   0 # h*
     56      1   1  0.000000    10.578361743     1.712580000     3.871360000   0   0   0 # h*
     57      1   2  0.000000     0.000000000     5.213359400     4.140000000   0   0   0 # o*
     58      1   2  0.000000     6.772318658     1.303359400     4.140000000   0   0   0 # o*
     59      1   2  0.000000     0.000000000     2.606640600     3.220000000   0   0   0 # o*
     60      1   2  0.000000     6.772318658     6.516640600     3.220000000   0   0   0 # o*
     61      1   1  0.000000     0.000000000     5.213359400     4.960640000   0   0   0 # h*
     62      1   1  0.000000     6.772318658     1.303359400     4.960640000   0   0   0 # h*
     63      1   1  0.000000     0.000000000     4.394840000     3.871360000   0   0   0 # h*
     64      1   1  0.000000     6.772318658     0.484840000     3.871360000   0   0   0 # h*
     65      1   2  0.000000     2.257416978     1.303320300     4.140000000   0   0   0 # o*
     66      1   2  0.000000     9.029735636     5.213320300     4.140000000   0   0   0 # o*
     67      1   2  0.000000     4.514901679     2.606679700     3.220000000   0   0   0 # o*
     68      1   2  0.000000    11.287220337     6.516679700     3.220000000   0   0   0 # o*
     69      1   1  0.000000     2.257416978     1.303320300     4.960640000   0   0   0 # h*
     70      1   1  0.000000     9.029735636     5.213320300     4.960640000   0   0   0 # h*
     71      1   1  0.000000     2.966275572     1.712580000     3.871360000   0   0   0 # h*
     72      1   1  0.000000     9.738594230     5.622580000     3.871360000   0   0   0 # h*
     73      1   1  0.000000    18.772867319     5.622580000     7.176000000   0   0   0 # h*
     74      1   1  0.000000    25.545185976     1.712580000     7.176000000   0   0   0 # h*
     75      1   1  0.000000    12.833543856     5.626490000     7.176000000   0   0   0 # h*
     76      1   1  0.000000    19.605862514     1.716490000     7.176000000   0   0   0 # h*
     77      1   1  0.000000    15.799819428     0.480930000     7.176000000   0   0   0 # h*
     78      1   1  0.000000    22.572138086     4.390930000     7.176000000   0   0   0 # h*
     79      1   1  0.000000    15.088725969     6.107420000     3.496000000   0   0   0 # h*
     80      1   1  0.000000    21.861044627     2.197420000     3.496000000   0   0   0 # h*
     81      1   1  0.000000    14.255730774     2.193510000     3.496000000   0   0   0 # h*
     82      1   1  0.000000    21.028049432     6.103510000     3.496000000   0   0   0 # h*
     83      1   1  0.000000    18.061773860     3.429070000     3.496000000   0   0   0 # h*
     84      1   1  0.000000    24.834092517     7.339070000     3.496000000   0   0   0 # h*
     85      1   1  0.000000    12.833543856     2.193510000     3.496000000   0   0   0 # h*
     86      1   1  0.000000    19.605862514     6.103510000     3.496000000   0   0   0 # h*
     87      1   1  0.000000    15.799819428     7.339070000     3.496000000   0   0   0 # h*
     88      1   1  0.000000    22.572138086     3.429070000     3.496000000   0   0   0 # h*
     89      1   1  0.000000    18.772867319     2.197420000     3.496000000   0   0   0 # h*
     90      1   1  0.000000    25.545185976     6.107420000     3.496000000   0   0   0 # h*
     91      1   1  0.000000    14.255730774     5.626490000     7.176000000   0   0   0 # h*
     92      1   1  0.000000    21.028049432     1.716490000     7.176000000   0   0   0 # h*
     93      1   1  0.000000    18.061773860     4.390930000     7.176000000   0   0   0 # h*
     94      1   1  0.000000    24.834092517     0.480930000     7.176000000   0   0   0 # h*
     95      1   1  0.000000    15.088725969     1.712580000     7.176000000   0   0   0 # h*
     96      1   1  0.000000    21.861044627     5.622580000     7.176000000   0   0   0 # h*
     97      1   2  0.000000    15.802054293     6.516679700     0.460000000   0   0   0 # o*
     98      1   2  0.000000    22.574372951     2.606679700     0.460000000   0   0   0 # o*
     99      1   2  0.000000    18.059538995     5.213320300     6.900000000   0   0   0 # o*
    100      1   2  0.000000    24.831857652     1.303320300     6.900000000   0   0   0 # o*
    101      1   1  0.000000    15.802054293     6.516679700     1.280640000   0   0   0 # h*
    102      1   1  0.000000    22.574372951     2.606679700     1.280640000   0   0   0 # h*
    103      1   1  0.000000    16.510912887     6.107420000     0.191360000   0   0   0 # h*
    104      1   1  0.000000    23.283231545     2.197420000     0.191360000   0   0   0 # h*
    105      1   2  0.000000    13.544637315     2.606640600     0.460000000   0   0   0 # o*
    106      1   2  0.000000    20.316955973     6.516640600     0.460000000   0   0   0 # o*
    107      1   2  0.000000    13.544637315     5.213359400     6.900000000   0   0   0 # o*
    108      1   2  0.000000    20.316955973     1.303359400     6.900000000   0   0   0 # o*
    109      1   1  0.000000    13.544637315     2.606640600     1.280640000   0   0   0 # h*
    110      1   1  0.000000    20.316955973     6.516640600     1.280640000   0   0   0 # h*
    111      1   1  0.000000    13.544637315     3.425160000     0.191360000   0   0   0 # h*
    112      1   1  0.000000    20.316955973     7.335160000     0.191360000   0   0   0 # h*
    113      1   2  0.000000    18.059538995     2.606679700     0.460000000   0   0   0 # o*
    114      1   2  0.000000    24.831857652     6.516679700     0.460000000   0   0   0 # o*
    115      1   2  0.000000    15.802054293     1.303320300     6.900000000   0   0   0 # o*
    116      1   2  0.000000    22.574372951     5.213320300     6.900000000   0   0   0 # o*
    117      1   1  0.000000    18.059538995     2.606679700     1.280640000   0   0   0 # h*
    118      1   1  0.000000    24.831857652     6.516679700     1.280640000   0   0   0 # h*
    119      1   1  0.000000    17.350680401     2.197420000     0.191360000   0   0   0 # h*
    120      1   1  0.000000    24.122999058     6.107420000     0.191360000   0   0   0 # h*
    121      1   2  0.000000    18.059538995     5.213320300     4.140000000   0   0   0 # o*
    122      1   2  0.000000    24.831857652     1.303320300     4.140000000   0   0   0 # o*
    123      1   2  0.000000    15.802054293     6.516679700     3.220000000   0   0   0 # o*
    124      1   2  0.000000    22.574372951     2.606679700     3.220000000   0   0   0 # o*
    125      1   1  0.000000    18.059538995     5.213320300     4.960640000   0   0   0 # h*
    126      1   1  0.000000    24.831857652     1.303320300     4.960640000   0   0   0 # h*
    127      1   1  0.000000    17.350680401     5.622580000     3.871360000   0   0   0 # h*
    128      1   1  0.000000    24.122999058     1.712580000     3.871360000   0   0   0 # h*
    129      1   2  0.000000    13.544637315     5.213359400     4.140000000   0   0   0 # o*
    130      1   2  0.000000    20.316955973     1.303359400     4.140000000   0   0   0 # o*
    131      1   2  0.000000    13.544637315     2.606640600     3.220000000   0   0   0 # o*
    132      1   2  0.000000    20.316955973     6.516640600     3.220000000   0   0   0 # o*
    133      1   1  0.000000    13.544637315     5.213359400     4.960640000   0   0   0 # h*
    134      1   1  0.000000    20.316955973     1.303359400     4.960640000   0   0   0 # h*
    135      1   1  0.000000    13.544637315     4.394840000     3.871360000   0   0   0 # h*
    136      1   1  0.000000    20.316955973     0.484840000     3.871360000   0   0   0 # h*
    137      1   2  0.000000    15.802054293     1.303320300     4.140000000   0   0   0 # o*
    138      1   2  0.000000    22.574372951     5.213320300     4.140000000   0   0   0 # o*
    139      1   2  0.000000    18.059538995     2.606679700     3.220000000   0   0   0 # o*
    140      1   2  0.000000    24.831857652     6.516679700     3.220000000   0   0   0 # o*
    141      1   1  0.000000    15.802054293     1.303320300     4.960640000   0   0   0 # h*
    142      1   1  0.000000    22.574372951     5.213320300     4.960640000   0   0   0 # h*
    143      1   1  0.000000    16.510912887     1.712580000     3.871360000   0   0   0 # h*
    144      1   1  0.000000    23.283231545     5.622580000     3.871360000   0   0   0 # h*
    145      1   1  0.000000    32.317504634     5.622580000     7.176000000   0   0   0 # h*
    146      1   1  0.000000    39.089823292     1.712580000     7.176000000   0   0   0 # h*
    147      1   1  0.000000    26.378181171     5.626490000     7.176000000   0   0   0 # h*
    148      1   1  0.000000    33.150499829     1.716490000     7.176000000   0   0   0 # h*
    149      1   1  0.000000    29.344456743     0.480930000     7.176000000   0   0   0 # h*
    150      1   1  0.000000    36.116775401     4.390930000     7.176000000   0   0   0 # h*
    151      1   1  0.000000    28.633363284     6.107420000     3.496000000   0   0   0 # h*
    152      1   1  0.000000    35.405681942     2.197420000     3.496000000   0   0   0 # h*
    153      1   1  0.000000    27.800368089     2.193510000     3.496000000   0   0   0 # h*
    154      1   1  0.000000    34.572686747     6.103510000     3.496000000   0   0   0 # h*
    155      1   1  0.000000    31.606411175     3.429070000     3.496000000   0   0   0 # h*
    156      1   1  0.000000    38.378729833     7.339070000     3.496000000   0   0   0 # h*
    157      1   1  0.000000    26.378181171     2.193510000     3.496000000   0   0   0 # h*
    158      1   1  0.000000    33.150499829     6.103510000     3.496000000   0   0   0 # h*
    159      1   1  0.000000    29.344456743     7.339070000     3.496000000   0   0   0 # h*
    160      1   1  0.000000    36.116775401     3.429070000     3.496000000   0   0   0 # h*
    161      1   1  0.000000    32.317504634     2.197420000     3.496000000   0   0   0 # h*
    162      1   1  0.000000    39.089823292     6.107420000     3.496000000   0   0   0 # h*
    163      1   1  0.000000    27.800368089     5.626490000     7.176000000   0   0   0 # h*
    164      1   1  0.000000    34.572686747     1.716490000     7.176000000   0   0   0 # h*
    165      1   1  0.000000    31.606411175     4.390930000     7.176000000   0   0   0 # h*
    166      1   1  0.000000    38.378729833     0.480930000     7.176000000   0   0   0 # h*
    167      1   1  0.000000    28.633363284     1.712580000     7.176000000   0   0   0 # h*
    168      1   1  0.000000    35.405681942     5.622580000     7.176000000   0   0   0 # h*
    169      1   2  0.000000    29.346691609     6.516679700     0.460000000   0   0   0 # o*
    170      1   2  0.000000    36.119010266     2.606679700     0.460000000   0   0   0 # o*
    171      1   2  0.000000    31.604176310     5.213320300     6.900000000   0   0   0 # o*
    172      1   2  0.000000    38.376494967     1.303320300     6.900000000   0   0   0 # o*
    173      1   1  0.000000    29.346691609     6.516679700     1.280640000   0   0   0 # h*
    174      1   1  0.000000    36.119010266     2.606679700     1.280640000   0   0   0 # h*
    175      1   1  0.000000    30.055550202     6.107420000     0.191360000   0   0   0 # h*
    176      1   1  0.000000    36.827868860     2.197420000     0.191360000   0   0   0 # h*
    177      1   2  0.000000    27.089274630     2.606640600     0.460000000   0   0   0 # o*
    178      1   2  0.000000    33.861593288     6.516640600     0.460000000   0   0   0 # o*
    179      1   2  0.000000    27.089274630     5.213359400     6.900000000   0   0   0 # o*
    180      1   2  0.000000    33.861593288     1.303359400     6.900000000   0   0   0 # o*
    181      1   1  0.000000    27.089274630     2.606640600     1.280640000   0   0   0 # h*
    182      1   1  0.000000    33.861593288     6.516640600     1.280640000   0   0   0 # h*
    183      1   1  0.000000    27.089274630     3.425160000     0.191360000   0   0   0 # h*
    184      1   1  0.000000    33.861593288     7.335160000     0.191360000   0   0   0 # h*
    185      1   2  0.000000    31.604176310     2.606679700     0.460000000   0   0   0 # o*
    186      1   2  0.000000    38.376494967     6.516679700     0.460000000   0   0   0 # o*
    187      1   2  0.000000    29.346691609     1.303320300     6.900000000   0   0   0 # o*
    188      1   2  0.000000    36.119010266     5.213320300     6.900000000   0   0   0 # o*
    189      1   1  0.000000    31.604176310     2.606679700     1.280640000   0   0   0 # h*
    190      1   1  0.000000    38.376494967     6.516679700     1.280640000   0   0   0 # h*
    191      1   1  0.000000    30.895317716     2.197420000     0.191360000   0   0   0 # h*
    192      1   1  0.000000    37.667636374     6.107420000     0.191360000   0   0   0 # h*
    193      1   2  0.000000    31.604176310     5.213320300     4.140000000   0   0   0 # o*
    194      1   2  0.000000    38.376494967     1.303320300     4.140000000   0   0   0 # o*
    195      1   2  0.000000    29.346691609     6.516679700     3.220000000   0   0   0 # o*
    196      1   2  0.000000    36.119010266     2.606679700     3.220000000   0   0   0 # o*
    197      1   1  0.000000    31.604176310     5.213320300     4.960640000   0   0   0 # h*
    198      1   1  0.000000    38.376494967     1.303320300     4.960640000   0   0   0 # h*
    199      1   1  0.000000    30.895317716     5.622580000     3.871360000   0   0   0 # h*
    200      1   1  0.000000    37.667636374     1.712580000     3.871360000   0   0   0 # h*
    201      1   2  0.000000    27.089274630     5.213359400     4.140000000   0   0   0 # o*
    202      1   2  0.000000    33.861593288     1.303359400     4.140000000   0   0   0 # o*
    203      1   2  0.000000    27.089274630     2.606640600     3.220000000   0   0   0 # o*
    204      1   2  0.000000    33.861593288     6.516640600     3.220000000   0   0   0 # o*
    205      1   1  0.000000    27.089274630     5.213359400     4.960640000   0   0   0 # h*
    206      1   1  0.000000    33.861593288     1.303359400     4.960640000   0   0   0 # h*
    207      1   1  0.000000    27.089274630     4.394840000     3.871360000   0   0   0 # h*
    208      1   1  0.000000    33.861593288     0.484840000     3.871360000   0   0   0 # h*
    209      1   2  0.000000    29.346691609     1.303320300     4.140000000   0   0   0 # o*
    210      1   2  0.000000    36.119010266     5.213320300     4.140000000   0   0   0 # o*
    211      1   2  0.000000    31.604176310     2.606679700     3.220000000   0   0   0 # o*
    212      1   2  0.000000    38.376494967     6.516679700     3.220000000   0   0   0 # o*
    213      1   1  0.000000    29.346691609     1.303320300     4.960640000   0   0   0 # h*
    214      1   1  0.000000    36.119010266     5.213320300     4.960640000   0   0   0 # h*
    215      1   1  0.000000    30.055550202     1.712580000     3.871360000   0   0   0 # h*
    216      1   1  0.000000    36.827868860     5.622580000     3.871360000   0   0   0 # h*
    217      1   1  0.000000     5.228230004    13.442580000     7.176000000   0   0   0 # h*
    218      1   1  0.000000    12.000548661     9.532580000     7.176000000   0   0   0 # h*
    219      1   1  0.000000    -0.711093459    13.446490000     7.176000000   0   0   0 # h*
    220      1   1  0.000000     6.061225199     9.536490000     7.176000000   0   0   0 # h*
    221      1   1  0.000000     2.255182113     8.300930000     7.176000000   0   0   0 # h*
    222      1   1  0.000000     9.027500771    12.210930000     7.176000000   0   0   0 # h*
    223      1   1  0.000000     1.544088654    13.927420000     3.496000000   0   0   0 # h*
    224      1   1  0.000000     8.316407312    10.017420000     3.496000000   0   0   0 # h*
    225      1   1  0.000000     0.711093459    10.013510000     3.496000000   0   0   0 # h*
    226      1   1  0.000000     7.483412117    13.923510000     3.496000000   0   0   0 # h*
    227      1   1  0.000000     4.517136545    11.249070000     3.496000000   0   0   0 # h*
    228      1   1  0.000000    11.289455202    15.159070000     3.496000000   0   0   0 # h*
    229      1   1  0.000000    -0.711093459    10.013510000     3.496000000   0   0   0 # h*
    230      1   1  0.000000     6.061225199    13.923510000     3.496000000   0   0   0 # h*
    231      1   1  0.000000     2.255182113    15.159070000     3.496000000   0   0   0 # h*
    232      1   1  0.000000     9.027500771    11.249070000     3.496000000   0   0   0 # h*
    233      1   1  0.000000     5.228230004    10.017420000     3.496000000   0   0   0 # h*
    234      1   1  0.000000    12.000548661    13.927420000     3.496000000   0   0   0 # h*
    235      1   1  0.000000     0.711093459    13.446490000     7.176000000   0   0   0 # h*
    236      1   1  0.000000     7.483412117     9.536490000     7.176000000   0   0   0 # h*
    237      1   1  0.000000     4.517136545    12.210930000     7.176000000   0   0   0 # h*
    238      1   1  0.000000    11.289455202     8.300930000     7.176000000   0   0   0 # h*
    239      1   1  0.000000     1.544088654     9.532580000     7.176000000   0   0   0 # h*
    240      1   1  0.000000     8.316407312    13.442580000     7.176000000   0   0   0 # h*
    241      1   2  0.000000     2.257416978    14.336679700     0.460000000   0   0   0 # o*
    242      1   2  0.000000     9.029735636    10.426679700     0.460000000   0   0   0 # o*
    243      1   2  0.000000     4.514901679    13.033320300     6.900000000   0   0   0 # o*
    244      1   2  0.000000    11.287220337     9.123320300     6.900000000   0   0   0 # o*
    245      1   1  0.000000     2.257416978    14.336679700     1.280640000   0   0   0 # h*
    246      1   1  0.000000     9.029735636    10.426679700     1.280640000   0   0   0 # h*
    247      1   1  0.000000     2.966275572    13.927420000     0.191360000   0   0   0 # h*
    248      1   1  0.000000     9.738594230    10.017420000     0.191360000   0   0   0 # h*
    249      1   2  0.000000     0.000000000    10.426640600     0.460000000   0   0   0 # o*
    250      1   2  0.000000     6.772318658    14.336640600     0.460000000   0   0   0 # o*
    251      1   2  0.000000     0.000000000    13.033359400     6.900000000   0   0   0 # o*
    252      1   2  0.000000     6.772318658     9.123359400     6.900000000   0   0   0 # o*
    253      1   1  0.000000     0.000000000    10.426640600     1.280640000   0   0   0 # h*
    254      1   1  0.000000     6.772318658    14.336640600     1.280640000   0   0   0 # h*
    255      1   1  0.000000     0.000000000    11.245160000     0.191360000   0   0   0 # h*
    256      1   1  0.000000     6.772318658    15.155160000     0.191360000   0   0   0 # h*
    257      1   2  0.000000     4.514901679    10.426679700     0.460000000   0   0   0 # o*
    258      1   2  0.000000    11.287220337    14.336679700     0.460000000   0   0   0 # o*
    259      1   2  0.000000     2.257416978     9.123320300     6.900000000   0   0   0 # o*
    260      1   2  0.000000     9.029735636    13.033320300     6.900000000   0   0   0 # o*
    261      1   1  0.000000     4.514901679    10.426679700     1.280640000   0   0   0 # h*
    262      1   1  0.000000    11.287220337    14.336679700     1.280640000   0   0   0 # h*
    263      1   1  0.000000     3.806043086    10.017420000     0.191360000   0   0   0 # h*
    264      1   1  0.000000    10.578361743    13.927420000     0.191360000   0   0   0 # h*
    265      1   2  0.000000     4.514901679    13.033320300     4.140000000   0   0   0 # o*
    266      1   2  0.000000    11.287220337     9.123320300     4.140000000   0   0   0 # o*
    267      1   2  0.000000     2.257416978    14.336679700     3.220000000   0   0   0 # o*
    268      1   2  0.000000     9.029735636    10.426679700     3.220000000   0   0   0 # o*
    269      1   1  0.000000     4.514901679    13.033320300     4.960640000   0   0   0 # h*
    270      1   1  0.000000    11.287220337     9.123320300     4.960640000   0   0   0 # h*
    271      1   1  0.000000     3.806043086    13.442580000     3.871360000   0   0   0 # h*
    272      1   1  0.000000    10.578361743     9.532580000     3.871360000   0   0   0 # h*
    273      1   2  0.000000     0.000000000    13.033359400     4.140000000   0   0   0 # o*
    274      1   2  0.000000     6.772318658     9.123359400     4.140000000   0   0   0 # o*
    275      1   2  0.000000     0.000000000    10.426640600     3.220000000   0   0   0 # o*
    276      1   2  0.000000     6.772318658    14.336640600     3.220000000   0   0   0 # o*
    277      1   1  0.000000     0.000000000    13.033359400     4.960640000   0   0   0 # h*
    278      1   1  0.000000     6.772318658     9.123359400     4.960640000   0   0   0 # h*
    279      1   1  0.000000     0.000000000    12.214840000     3.871360000   0   0   0 # h*
    280      1   1  0.000000     6.772318658     8.304840000     3.871360000   0   0   0 # h*
    281      1   2  0.000000     2.257416978     9.123320300     4.140000000   0   0   0 # o*
    282      1   2  0.000000     9.029735636    13.033320300     4.140000000   0   0   0 # o*
    283      1   2  0.000000     4.514901679    10.426679700     3.220000000   0   0   0 # o*
    284      1   2  0.000000    11.287220337    14.336679700     3.220000000   0   0   0 # o*
    285      1   1  0.000000     2.257416978     9.123320300     4.960640000   0   0   0 # h*
    286      1   1  0.000000     9.029735636    13.033320300     4.960640000   0   0   0 # h*
    287      1   1  0.000000     2.966275572     9.532580000     3.871360000   0   0   0 # h*
    288      1   1  0.000000     9.738594230    13.442580000     3.871360000   0   0   0 # h*
    289      1   1  0.000000    18.772867319    13.442580000     7.176000000   0   0   0 # h*
    290      1   1  0.000000    25.545185976     9.532580000     7.176000000   0   0   0 # h*
    291      1   1  0.000000    12.833543856    13.446490000     7.176000000   0   0   0 # h*
    292      1   1  0.000000    19.605862514     9.536490000     7.176000000   0   0   0 # h*
    293      1   1  0.000000    15.799819428     8.300930000     7.176000000   0   0   0 # h*
    294      1   1  0.000000    22.572138086    12.210930000     7.176000000   0   0   0 # h*
    295      1   1  0.000000    15.088725969    13.927420000     3.496000000   0   0   0 # h*
    296      1   1  0.000000    21.861044627    10.017420000     3.496000000   0   0   0 # h*
    297      1   1  0.000000    14.255730774    10.013510000     3.496000000   0   0   0 # h*
    298      1   1  0.000000    21.028049432    13.923510000     3.496000000   0   0   0 # h*
    299      1   1  0.000000    18.061773860    11.249070000     3.496000000   0   0   0 # h*
    300      1   1  0.000000    24.834092517    15.159070000     3.496000000   0   0   0 # h*
    301      1   1  0.000000    12.833543856    10.013510000     3.496000000   0   0   0 # h*
    302      1   1  0.000000    19.605862514    13.923510000     3.496000000   0   0   0 # h*
    303      1   1  0.000000    15.799819428    15.159070000     3.496000000   0   0   0 # h*
    304      1   1  0.000000    22.572138086    11.249070000     3.496000000   0   0   0 # h*
    305      1   1  0.000000    18.772867319    10.017420000     3.496000000   0   0   0 # h*
    306      1   1  0.000000    25.545185976    13.927420000     3.496000000   0   0   0 # h*
    307      1   1  0.000000    14.255730774    13.446490000     7.176000000   0   0   0 # h*
    308      1   1  0.000000    21.028049432     9.536490000     7.176000000   0   0   0 # h*
    309      1   1  0.000000    18.061773860    12.210930000     7.176000000   0   0   0 # h*
    310      1   1  0.000000    24.834092517     8.300930000     7.176000000   0   0   0 # h*
    311      1   1  0.000000    15.088725969     9.532580000     7.176000000   0   0   0 # h*
    312      1   1  0.000000    21.861044627    13.442580000     7.176000000   0   0   0 # h*